VARIABLES="U","Y"
ZONE F=POINT
I=19
1.000000 	 0.000000
0.737577 	 0.030229
0.493023 	 0.066545
0.313049 	 0.109556
0.201226 	 0.159644
0.123928 	 0.216843
0.048139 	 0.280716
-0.038012 	 0.350288
-0.124661 	 0.424037
-0.187528 	 0.500000
-0.209093 	 0.575963
-0.194687 	 0.649712
-0.162156 	 0.719284
-0.126242 	 0.783157
-0.093839 	 0.840356
-0.066207 	 0.890444
-0.042296 	 0.933455
-0.020808 	 0.969771
0.000000 	 1.000000
VARIABLES="U","Y"
ZONE F=POINT
I=17
1.000000 	 0.000000
0.841230 	 0.023400
0.788710 	 0.031200
0.737220 	 0.039100
0.687170 	 0.046900
0.231510 	 0.148400
0.003320 	 0.265600
-0.136410 	 0.382800
-0.205810 	 0.500000
-0.210900 	 0.546900
-0.156620 	 0.718700
-0.101500 	 0.828100
-0.064340 	 0.898400
-0.047750 	 0.929700
-0.041920 	 0.937500
-0.037170 	 0.945300
0.000000 	 1.000000
