VARIABLES="X","Y","Vel", "U","V","P"
ZONE  F=POINT
I=19, J=19
0.00000000	1.00000000	1.00000000	1.00000000	0.00000000	-0.23858866
0.03022909	1.00000000	1.00000000	1.00000000	0.00000000	-0.15947030
0.06654494	1.00000000	1.00000000	1.00000000	0.00000000	-0.05000271
0.10955581	1.00000000	1.00000000	1.00000000	0.00000000	-0.00709485
0.15964432	1.00000000	1.00000000	1.00000000	0.00000000	0.01121102
0.21684282	1.00000000	1.00000000	1.00000000	0.00000000	0.01826826
0.28071639	1.00000000	1.00000000	1.00000000	0.00000000	0.01687048
0.35028759	1.00000000	1.00000000	1.00000000	0.00000000	0.00785192
0.42403662	1.00000000	1.00000000	1.00000000	0.00000000	-0.00712307
0.50000000	1.00000000	1.00000000	1.00000000	0.00000000	-0.02430060
0.57596344	1.00000000	1.00000000	1.00000000	0.00000000	-0.03775277
0.64971244	1.00000000	1.00000000	1.00000000	0.00000000	-0.04055622
0.71928364	1.00000000	1.00000000	1.00000000	0.00000000	-0.02602969
0.78315717	1.00000000	1.00000000	1.00000000	0.00000000	0.01211388
0.84035569	1.00000000	1.00000000	1.00000000	0.00000000	0.08051445
0.89044422	1.00000000	1.00000000	1.00000000	0.00000000	0.18856955
0.93345505	1.00000000	1.00000000	1.00000000	0.00000000	0.35641903
0.96977091	1.00000000	1.00000000	1.00000000	0.00000000	0.61264563
1.00000000	1.00000000	1.00000000	1.00000000	0.00000000	0.76642966
0.00000000	0.96977091	0.00000000	0.00000000	0.00000000	-0.17562288
0.03022909	0.96977091	0.21130717	0.07611962	0.19712058	-0.12694050
0.06654494	0.96977091	0.23782520	0.19159779	0.14089398	-0.05380908
0.10955581	0.96977091	0.31985822	0.30875555	0.08354212	-0.01613614
0.15964432	0.96977091	0.41462708	0.41152889	0.05059241	0.00407018
0.21684282	0.96977091	0.50002474	0.49894136	0.03289739	0.01322536
0.28071639	0.96977091	0.57418633	0.57372415	0.02303368	0.01322500
0.35028759	0.96977091	0.63849342	0.63826698	0.01700423	0.00506768
0.42403662	0.96977091	0.69345331	0.69333863	0.01261130	-0.00937108
0.50000000	0.96977091	0.73762727	0.73757720	0.00859191	-0.02618154
0.57596344	0.96977091	0.76822382	0.76821154	0.00433890	-0.03934790
0.64971244	0.96977091	0.78270239	0.78270227	-0.00045939	-0.04195185
0.71928364	0.96977091	0.77913022	0.77910399	-0.00639063	-0.02741105
0.78315717	0.96977091	0.75483584	0.75469184	-0.01474326	0.01033548
0.84035569	0.96977091	0.70484018	0.70427215	-0.02829098	0.07721206
0.89044422	0.96977091	0.62089080	0.61846173	-0.05486751	0.17975482
0.93345505	0.96977091	0.49050844	0.47069019	-0.13801913	0.32890719
0.96977091	0.96977091	0.35473421	0.22433753	-0.27478907	0.52791190
1.00000000	0.96977091	0.00000000	0.00000000	0.00000000	0.63884258
0.00000000	0.93345505	0.00000000	0.00000000	0.00000000	-0.08357988
0.03022909	0.93345505	0.18797283	-0.05606960	0.17941567	-0.07344209
0.06654494	0.93345505	0.20731832	-0.05613613	0.19957359	-0.05043362
0.10955581	0.93345505	0.16335915	-0.00313206	0.16332912	-0.02628121
0.15964432	0.93345505	0.14532349	0.07805199	0.12258385	-0.00737081
0.21684282	0.93345505	0.19246124	0.16904360	0.09200862	0.00348260
0.28071639	0.93345505	0.26980621	0.26030505	0.07096954	0.00541610
0.35028759	0.93345505	0.35171250	0.34721860	0.05604398	-0.00123361
0.42403662	0.93345505	0.42857182	0.42631090	0.04396401	-0.01463008
0.50000000	0.93345505	0.49407437	0.49302292	0.03221639	-0.03074494
0.57596344	0.93345505	0.54227126	0.54192334	0.01942212	-0.04348283
0.64971244	0.93345505	0.56857646	0.56855607	0.00481647	-0.04604857
0.71928364	0.93345505	0.56989074	0.56973785	-0.01320093	-0.03229191
0.78315717	0.93345505	0.54285538	0.54149544	-0.03840150	0.00294899
0.84035569	0.93345505	0.48322496	0.47687382	-0.07808799	0.06345954
0.89044422	0.93345505	0.39498797	0.36401567	-0.15332347	0.15002413
0.93345505	0.93345505	0.35272074	0.18808904	-0.29838639	0.25814801
0.96977091	0.93345505	0.40366921	0.01651073	-0.40333140	0.36354244
1.00000000	0.93345505	0.00000000	0.00000000	0.00000000	0.41044652
0.00000000	0.89044416	0.00000000	0.00000000	0.00000000	-0.04320674
0.03022909	0.89044416	0.13116446	-0.03327534	0.12687343	-0.04237068
0.06654494	0.89044416	0.19380686	-0.06509561	0.18254769	-0.03677951
0.10955581	0.89044416	0.20193188	-0.06727728	0.19039498	-0.02552719
0.15964432	0.89044416	0.17669731	-0.03489885	0.17321666	-0.01331681
0.21684282	0.89044416	0.15034506	0.02273391	0.14861630	-0.00470745
0.28071639	0.89044416	0.15696672	0.09456052	0.12528710	-0.00279048
0.35028759	0.89044416	0.20139803	0.17189224	0.10494868	-0.00866894
0.42403662	0.89044416	0.26176399	0.24733268	0.08571425	-0.02121175
0.50000000	0.89044416	0.31971252	0.31304878	0.06493501	-0.03668496
0.57596344	0.89044416	0.36360887	0.36128014	0.04108613	-0.04917962
0.64971244	0.89044416	0.38658166	0.38635305	0.01329296	-0.05229211
0.71928364	0.89044416	0.38529167	0.38470703	-0.02121724	-0.04074049
0.78315717	0.89044416	0.35905358	0.35229686	-0.06932811	-0.01094086
0.84035569	0.89044416	0.31717977	0.28234592	-0.14451224	0.03819351
0.89044422	0.89044416	0.31687164	0.16698316	-0.26930329	0.10299008
0.93345505	0.89044416	0.42951950	0.02659144	-0.42869559	0.17140463
0.96977091	0.89044416	0.44366810	-0.04519947	-0.44135970	0.22157283
1.00000000	0.89044416	0.00000000	0.00000000	0.00000000	0.23878926
0.00000000	0.84035569	0.00000000	0.00000000	0.00000000	-0.02710256
0.03022909	0.84035569	0.09370531	-0.01314060	0.09277936	-0.02744611
0.06654494	0.84035569	0.15882771	-0.03257577	0.15545115	-0.02629475
0.10955581	0.84035569	0.19351487	-0.04399289	0.18844795	-0.02175184
0.15964432	0.84035569	0.19960593	-0.03680789	0.19618283	-0.01549006
0.21684282	0.84035569	0.18762632	-0.00872166	0.18742350	-0.01065485
0.28071639	0.84035569	0.17455153	0.03636237	0.17072204	-0.01036202
0.35028759	0.84035569	0.17635812	0.09191813	0.15050994	-0.01643430
0.42403662	0.84035569	0.19626278	0.14998308	0.12658654	-0.02849425
0.50000000	0.84035569	0.22336617	0.20122555	0.09695734	-0.04337551
0.57596344	0.84035569	0.24425863	0.23656845	0.06080827	-0.05564358
0.64971244	0.84035569	0.25043678	0.24979860	0.01786726	-0.05954633
0.71928364	0.84035569	0.24033174	0.23769690	-0.03548979	-0.05090898
0.78315717	0.84035569	0.22557774	0.19725563	-0.10943279	-0.02779688
0.84035569	0.84035569	0.25321743	0.12457926	-0.22045197	0.00892433
0.89044422	0.84035569	0.37457094	0.02573219	-0.37368602	0.05367108
0.93345505	0.84035569	0.50340486	-0.05483515	-0.50040936	0.09418833
0.96977091	0.84035569	0.42101064	-0.05230973	-0.41774830	0.11663780
1.00000000	0.84035569	0.00000000	0.00000000	0.00000000	0.12187064
0.00000000	0.78315717	0.00000000	0.00000000	0.00000000	-0.01927075
0.03022909	0.78315717	0.07753138	-0.00423069	0.07741587	-0.01951721
0.06654494	0.78315717	0.14043075	-0.01218254	0.13990133	-0.01938045
0.10955581	0.78315717	0.18448782	-0.01877185	0.18353030	-0.01790078
0.15964432	0.78315717	0.20687917	-0.01813322	0.20608294	-0.01561037
0.21684282	0.78315717	0.21082997	-0.00617822	0.21073943	-0.01427771
0.28071639	0.78315717	0.20378534	0.01810249	0.20297971	-0.01621926
0.35028759	0.78315717	0.19333430	0.05225842	0.18613760	-0.02319071
0.42403662	0.78315717	0.18349646	0.09041768	0.15967339	-0.03520361
0.50000000	0.78315717	0.17371674	0.12392809	0.12173469	-0.04963809
0.57596344	0.78315717	0.16090633	0.14363742	0.07251992	-0.06165724
0.64971244	0.78315717	0.14361379	0.14302257	0.01301780	-0.06624378
0.71928364	0.78315717	0.13355339	0.11900541	-0.06061533	-0.06020431
0.78315717	0.78315717	0.17489895	0.07033759	-0.16013204	-0.04272329
0.84035569	0.78315717	0.29618859	0.00048425	-0.29618821	-0.01557945
0.89044422	0.78315717	0.45024416	-0.06794203	-0.44508839	0.01535496
0.93345505	0.78315717	0.51487947	-0.08861460	-0.50719655	0.03994473
0.96977091	0.78315717	0.35970980	-0.04236679	-0.35720611	0.04961264
1.00000000	0.78315717	0.00000000	0.00000000	0.00000000	0.05004275
0.00000000	0.71928358	0.00000000	0.00000000	0.00000000	-0.01336134
0.03022909	0.71928358	0.07182451	-0.00125988	0.07181346	-0.01350681
0.06654494	0.71928358	0.13300079	-0.00450233	0.13292456	-0.01368452
0.10955581	0.71928358	0.18006177	-0.00865982	0.17985341	-0.01363706
0.15964432	0.71928358	0.20954224	-0.01139166	0.20923236	-0.01370735
0.21684282	0.71928358	0.22241408	-0.00976893	0.22219944	-0.01494786
0.28071639	0.71928358	0.22185197	-0.00147782	0.22184706	-0.01891450
0.35028759	0.71928358	0.20959897	0.01360591	0.20915690	-0.02696956
0.42403662	0.71928358	0.18451771	0.03228843	0.18167070	-0.03917680
0.50000000	0.71928358	0.14481547	0.04813945	0.13658006	-0.05328114
0.57596344	0.71928358	0.09157230	0.05322895	0.07451285	-0.06496169
0.64971244	0.71928358	0.04102512	0.04096084	-0.00229562	-0.06976768
0.71928364	0.71928358	0.09704335	0.00808818	-0.09670570	-0.06506799
0.78315717	0.71928358	0.22119124	-0.04322153	-0.21692732	-0.05058480
0.84035569	0.71928358	0.37106618	-0.09836040	-0.35779232	-0.02870619
0.89044422	0.71928358	0.48501852	-0.12507647	-0.46861374	-0.00557051
0.93345505	0.71928358	0.46565399	-0.09511916	-0.45583546	0.01036574
0.96977091	0.71928358	0.27961132	-0.03125175	-0.27785936	0.01410903
1.00000000	0.71928358	0.00000000	0.00000000	0.00000000	0.01275514
0.00000000	0.64971244	0.00000000	0.00000000	0.00000000	-0.00727044
0.03022909	0.64971244	0.06871092	-0.00087295	0.06870537	-0.00742661
0.06654494	0.64971244	0.12717760	-0.00388314	0.12711830	-0.00780568
0.10955581	0.64971244	0.17325860	-0.00952559	0.17299655	-0.00841786
0.15964432	0.64971244	0.20458785	-0.01719747	0.20386377	-0.00964555
0.21684282	0.64971244	0.22215217	-0.02514001	0.22072509	-0.01226230
0.28071639	0.64971244	0.22742595	-0.03121387	0.22527373	-0.01735782
0.35028759	0.64971244	0.21896482	-0.03428436	0.21626413	-0.02591157
0.42403662	0.64971244	0.19223084	-0.03536751	0.18894929	-0.03788289
0.50000000	0.64971244	0.14392689	-0.03801209	0.13881654	-0.05121610
0.57596344	0.64971244	0.08131690	-0.04770754	0.06585157	-0.06194779
0.64971244	0.64971244	0.07481864	-0.06979252	-0.02695984	-0.06594836
0.71928364	0.64971244	0.17434518	-0.10544410	-0.13884446	-0.06086679
0.78315717	0.64971244	0.30374581	-0.14589891	-0.26641136	-0.04701334
0.84035569	0.64971244	0.41922975	-0.16845587	-0.38389608	-0.02791719
0.89044422	0.64971244	0.45737797	-0.14740345	-0.43297440	-0.01021648
0.93345505	0.64971244	0.37174284	-0.08426411	-0.36206672	-0.00040936
0.96977091	0.64971244	0.19647864	-0.02232949	-0.19520566	0.00001413
1.00000000	0.64971244	0.00000000	0.00000000	0.00000000	-0.00186040
0.00000000	0.57596338	0.00000000	0.00000000	0.00000000	-0.00070643
0.03022909	0.57596338	0.06350883	-0.00150713	0.06349094	-0.00093084
0.06654494	0.57596338	0.11684819	-0.00632589	0.11667683	-0.00146803
0.10955581	0.57596338	0.15910767	-0.01544497	0.15835625	-0.00231042
0.15964432	0.57596338	0.18942481	-0.02888707	0.18720923	-0.00384542
0.21684282	0.57596338	0.20955332	-0.04570419	0.20450848	-0.00671108
0.28071639	0.57596338	0.22073315	-0.06447852	0.21110576	-0.01172225
0.35028759	0.57596338	0.22086459	-0.08404211	0.20425007	-0.01956641
0.42403662	0.57596338	0.20570469	-0.10393286	0.17751727	-0.03007825
0.50000000	0.57596338	0.17635068	-0.12466083	0.12473668	-0.04136961
0.57596344	0.57596338	0.15446950	-0.14781038	0.04486556	-0.04985687
0.64971244	0.57596338	0.18370700	-0.17455401	-0.05726393	-0.05182978
0.71928364	0.57596338	0.26496542	-0.20096198	-0.17268744	-0.04552038
0.78315717	0.57596338	0.35482910	-0.21349263	-0.28341594	-0.03234503
0.84035569	0.57596338	0.40385306	-0.19357157	-0.35443947	-0.01694107
0.89044422	0.57596338	0.37163392	-0.13581112	-0.34592935	-0.00522992
0.93345505	0.57596338	0.26165453	-0.06411357	-0.25367802	-0.00067686
0.96977091	0.57596338	0.12489373	-0.01502751	-0.12398636	-0.00213500
1.00000000	0.57596338	0.00000000	0.00000000	0.00000000	-0.00393149
0.00000000	0.50000000	0.00000000	0.00000000	0.00000000	0.00566098
0.03022909	0.50000000	0.05441301	-0.00229459	0.05436460	0.00536952
0.06654494	0.50000000	0.09994738	-0.00909785	0.09953245	0.00473969
0.10955581	0.50000000	0.13651618	-0.02143379	0.13482307	0.00391093
0.15964432	0.50000000	0.16432524	-0.03943520	0.15952319	0.00256477
0.21684282	0.50000000	0.18564974	-0.06263248	0.17476556	0.00020102
0.28071639	0.50000000	0.20204094	-0.09029411	0.18074158	-0.00376886
0.35028759	0.50000000	0.21227829	-0.12149268	0.17407355	-0.00978008
0.42403662	0.50000000	0.21407083	-0.15471309	0.14795330	-0.01756924
0.50000000	0.50000000	0.21062887	-0.18752830	0.09590442	-0.02552277
0.57596344	0.50000000	0.21746735	-0.21678357	0.01723180	-0.03074457
0.64971244	0.50000000	0.25126407	-0.23820916	-0.07993763	-0.03046308
0.71928364	0.50000000	0.30281851	-0.24426541	-0.17897892	-0.02398979
0.78315717	0.50000000	0.33971223	-0.22436541	-0.25507757	-0.01365959
0.84035569	0.50000000	0.32936412	-0.17347801	-0.27997518	-0.00379897
0.89044422	0.50000000	0.26246950	-0.10406210	-0.24095917	0.00193589
0.93345505	0.50000000	0.16475776	-0.04330445	-0.15896492	0.00282803
0.96977091	0.50000000	0.07253990	-0.00935886	-0.07193363	0.00078218
1.00000000	0.50000000	0.00000000	0.00000000	0.00000000	-0.00063507
0.00000000	0.42403656	0.00000000	0.00000000	0.00000000	0.01088340
0.03022909	0.42403656	0.04241554	-0.00273205	0.04232746	0.01056090
0.06654494	0.42403656	0.07848642	-0.01056399	0.07777223	0.00991525
0.10955581	0.42403656	0.10848365	-0.02440727	0.10570236	0.00920593
0.15964432	0.42403656	0.13299903	-0.04433087	0.12539345	0.00821931
0.21684282	0.42403656	0.15421070	-0.07003890	0.13738811	0.00660915
0.28071639	0.42403656	0.17375626	-0.10108763	0.14132419	0.00399901
0.35028759	0.42403656	0.19128725	-0.13654719	0.13396147	0.00017166
0.42403662	0.42403656	0.20561728	-0.17407373	0.10943857	-0.00456817
0.50000000	0.42403656	0.21826528	-0.20909342	0.06260730	-0.00902009
0.57596344	0.42403656	0.23508644	-0.23501676	-0.00572347	-0.01126950
0.64971244	0.42403656	0.25883916	-0.24445292	-0.08509102	-0.00981409
0.71928364	0.42403656	0.27859539	-0.23058081	-0.15635817	-0.00492430
0.78315717	0.42403656	0.27416942	-0.19034839	-0.19732299	0.00117386
0.84035569	0.42403656	0.23341420	-0.13070512	-0.19338657	0.00574613
0.89044422	0.42403656	0.16562697	-0.07015660	-0.15003449	0.00738838
0.93345505	0.42403656	0.09482729	-0.02695023	-0.09091699	0.00660687
0.96977091	0.42403656	0.03876570	-0.00547909	-0.03837654	0.00480353
1.00000000	0.42403656	0.00000000	0.00000000	0.00000000	0.00382581
0.00000000	0.35028756	0.00000000	0.00000000	0.00000000	0.01440099
0.03022909	0.35028756	0.02992560	-0.00270025	0.02980353	0.01408939
0.06654494	0.35028756	0.05643055	-0.01037428	0.05546875	0.01349132
0.10955581	0.35028756	0.07987019	-0.02382697	0.07623335	0.01291943
0.15964432	0.35028756	0.10077903	-0.04306833	0.09111275	0.01225712
0.21684282	0.35028756	0.12077295	-0.06778970	0.09995329	0.01129404
0.28071639	0.35028756	0.14107519	-0.09746788	0.10199128	0.00981973
0.35028759	0.35028756	0.16143593	-0.13088204	0.09450636	0.00776185
0.42403662	0.35028756	0.18059325	-0.16510537	0.07317197	0.00539297
0.50000000	0.35028756	0.19778237	-0.19468710	0.03485395	0.00346628
0.57596344	0.35028756	0.21285671	-0.21208708	-0.01808443	0.00296688
0.64971244	0.35028756	0.22298181	-0.21000516	-0.07495812	0.00438177
0.71928364	0.35028756	0.21984461	-0.18483925	-0.11902145	0.00709113
0.78315717	0.35028756	0.19481231	-0.14011836	-0.13534652	0.00967546
0.84035569	0.35028756	0.14916067	-0.08795509	-0.12046912	0.01095529
0.89044422	0.35028756	0.09619489	-0.04376560	-0.08566231	0.01072756
0.93345505	0.35028756	0.05055178	-0.01594597	-0.04797091	0.00960038
0.96977091	0.35028756	0.01884949	-0.00308444	-0.01859541	0.00829948
1.00000000	0.35028756	0.00000000	0.00000000	0.00000000	0.00767992
0.00000000	0.28071636	0.00000000	0.00000000	0.00000000	0.01626504
0.03022909	0.28071636	0.01900730	-0.00233127	0.01886379	0.01599449
0.06654494	0.28071636	0.03709509	-0.00899878	0.03598705	0.01548329
0.10955581	0.28071636	0.05461153	-0.02074427	0.05051826	0.01503265
0.15964432	0.28071636	0.07190117	-0.03760264	0.06128474	0.01459470
0.21684282	0.28071636	0.08991430	-0.05924746	0.06763371	0.01405676
0.28071639	0.28071636	0.10923021	-0.08498060	0.06862605	0.01331360
0.35028759	0.28071636	0.12917975	-0.11323746	0.06216658	0.01236050
0.42403662	0.28071636	0.14788565	-0.14076120	0.04534809	0.01139377
0.50000000	0.28071636	0.16301288	-0.16215628	0.01668939	0.01081271
0.57596344	0.28071636	0.17198980	-0.17074290	-0.02067246	0.01098917
0.64971244	0.28071636	0.17120902	-0.16126482	-0.05749945	0.01189406
0.71928364	0.28071636	0.15646484	-0.13352139	-0.08156767	0.01298970
0.78315717	0.28071636	0.12692085	-0.09434675	-0.08489754	0.01361290
0.84035569	0.28071636	0.08883163	-0.05533267	-0.06949356	0.01346336
0.89044422	0.28071636	0.05238650	-0.02608792	-0.04542869	0.01271714
0.93345505	0.28071636	0.02475682	-0.00910978	-0.02301981	0.01176669
0.96977091	0.28071636	0.00783372	-0.00167833	-0.00765182	0.01091870
1.00000000	0.28071636	0.00000000	0.00000000	0.00000000	0.01054623
0.00000000	0.21684283	0.00000000	0.00000000	0.00000000	0.01691491
0.03022909	0.21684283	0.01068642	-0.00180128	0.01053351	0.01670055
0.06654494	0.21684283	0.02214761	-0.00704479	0.02099732	0.01629375
0.10955581	0.21684283	0.03468175	-0.01643774	0.03053890	0.01594337
0.15964432	0.21684283	0.04846978	-0.03012474	0.03797130	0.01564218
0.21684282	0.21684283	0.06396155	-0.04785195	0.04244138	0.01534092
0.28071639	0.21684283	0.08121356	-0.06885055	0.04307254	0.01499633
0.35028759	0.21684283	0.09912176	-0.09138397	0.03839391	0.01462812
0.42403662	0.21684283	0.11525206	-0.11215057	0.02655724	0.01435940
0.50000000	0.21684283	0.12643498	-0.12624161	0.00698999	0.01436853
0.57596344	0.21684283	0.12958813	-0.12842053	-0.01735655	0.01471882
0.64971244	0.21684283	0.12234545	-0.11580208	-0.03947514	0.01521059
0.71928364	0.21684283	0.10416080	-0.09057588	-0.05143426	0.01548217
0.78315717	0.21684283	0.07801169	-0.06013544	-0.04969460	0.01530303
0.84035569	0.21684283	0.05016213	-0.03322548	-0.03758067	0.01472716
0.89044422	0.21684283	0.02668403	-0.01483631	-0.02217930	0.01398492
0.93345505	0.21684283	0.01061038	-0.00489355	-0.00941453	0.01329600
0.96977091	0.21684283	0.00214197	-0.00083052	-0.00197440	0.01277399
1.00000000	0.21684283	0.00000000	0.00000000	0.00000000	0.01256148
0.00000000	0.15964431	0.00000000	0.00000000	0.00000000	0.01686754
0.03022909	0.15964431	0.00509533	-0.00123193	0.00494416	0.01671272
0.06654494	0.15964431	0.01180782	-0.00494772	0.01072123	0.01641058
0.10955581	0.15964431	0.02033053	-0.01183525	0.01653050	0.01613893
0.15964432	0.15964431	0.03077161	-0.02219003	0.02131888	0.01591207
0.21684282	0.15964431	0.04334643	-0.03589838	0.02429444	0.01572363
0.28071639	0.15964431	0.05784607	-0.05225352	0.02481406	0.01557269
0.35028759	0.15964431	0.07297657	-0.06958924	0.02197538	0.01549321
0.42403662	0.15964431	0.08612274	-0.08486453	0.01466758	0.01556190
0.50000000	0.15964431	0.09387644	-0.09383880	0.00265833	0.01583842
0.57596344	0.15964431	0.09331188	-0.09255037	-0.01189687	0.01625094
0.64971244	0.15964431	0.08343863	-0.07981765	-0.02431352	0.01656223
0.71928364	0.15964431	0.06608694	-0.05896382	-0.02984546	0.01652917
0.78315717	0.15964431	0.04554221	-0.03659756	-0.02710555	0.01610989
0.84035569	0.15964431	0.02656727	-0.01869861	-0.01887278	0.01547477
0.89044422	0.15964431	0.01220824	-0.00755345	-0.00959095	0.01484363
0.93345505	0.15964431	0.00338908	-0.00214120	-0.00262699	0.01435426
0.96977091	0.15964431	0.00064243	-0.00026144	0.00058683	0.01404539
1.00000000	0.15964431	0.00000000	0.00000000	0.00000000	0.01393579
0.00000000	0.10955578	0.00000000	0.00000000	0.00000000	0.01653878
0.03022909	0.10955578	0.00185294	-0.00068866	0.00172021	0.01643770
0.06654494	0.10955578	0.00540875	-0.00296848	0.00452136	0.01622410
0.10955581	0.10955578	0.01075584	-0.00751396	0.00769601	0.01600253
0.15964432	0.10955578	0.01806173	-0.01474293	0.01043418	0.01580109
0.21684282	0.10955578	0.02750408	-0.02466315	0.01217388	0.01564802
0.28071639	0.10955578	0.03879011	-0.03669932	0.01256311	0.01557903
0.35028759	0.10955578	0.05070075	-0.04945903	0.01115214	0.01564581
0.42403662	0.10955578	0.06088319	-0.06043942	0.00733756	0.01590522
0.50000000	0.10955578	0.06621370	-0.06620651	0.00097553	0.01635738
0.57596344	0.10955578	0.06411498	-0.06376389	-0.00670050	0.01686428
0.64971244	0.10955578	0.05434753	-0.05276649	-0.01301349	0.01716962
0.71928364	0.10955578	0.03972062	-0.03662077	-0.01538332	0.01707560
0.78315717	0.10955578	0.02461831	-0.02072954	-0.01327958	0.01660970
0.84035569	0.10955578	0.01243171	-0.00912352	-0.00844445	0.01598518
0.89044422	0.10955578	0.00433577	-0.00273561	-0.00336383	0.01542411
0.93345505	0.10955578	0.00030413	-0.00027119	0.00013765	0.01504337
0.96977091	0.10955578	0.00128976	0.00014964	0.00128105	0.01485872
1.00000000	0.10955578	0.00000000	0.00000000	0.00000000	0.01481261
0.00000000	0.06654495	0.00000000	0.00000000	0.00000000	0.01620044
0.03022909	0.06654495	0.00034952	-0.00022460	0.00026780	0.01613788
0.06654494	0.06654495	0.00190055	-0.00130981	0.00137713	0.01597817
0.10955581	0.06654495	0.00478578	-0.00388222	0.00279858	0.01576582
0.15964432	0.06654495	0.00929520	-0.00837030	0.00404212	0.01554542
0.21684282	0.06654495	0.01558210	-0.01481530	0.00482791	0.01537845
0.28071639	0.06654495	0.02334304	-0.02279318	0.00503672	0.01533360
0.35028759	0.06654495	0.03164484	-0.03132190	0.00450939	0.01548281
0.42403662	0.06654495	0.03875952	-0.03864485	0.00297921	0.01588139
0.50000000	0.06654495	0.04229728	-0.04229586	0.00034633	0.01650131
0.57596344	0.06654495	0.04021615	-0.04011332	-0.00287407	0.01715871
0.64971244	0.06654495	0.03245949	-0.03199145	-0.00549228	0.01755841
0.71928364	0.06654495	0.02162447	-0.02066861	-0.00635814	0.01749289
0.78315717	0.06654495	0.01143019	-0.01014491	-0.00526593	0.01701014
0.84035569	0.06654495	0.00432660	-0.00309235	-0.00302602	0.01635767
0.89044422	0.06654495	0.00077671	0.00016079	-0.00075988	0.01578726
0.93345505	0.06654495	0.00107112	0.00081338	0.00069692	0.01542947
0.96977091	0.06654495	0.00103701	0.00038427	0.00096318	0.01529543
1.00000000	0.06654495	0.00000000	0.00000000	0.00000000	0.01527993
0.00000000	0.03022909	0.00000000	0.00000000	0.00000000	0.01599704
0.03022909	0.03022909	0.00010489	0.00006414	-0.00008299	0.01594821
0.06654494	0.03022909	0.00028909	-0.00021776	0.00019014	0.01579036
0.10955581	0.03022909	0.00141723	-0.00129537	0.00057494	0.01553721
0.15964432	0.03022909	0.00356014	-0.00344474	0.00089908	0.01525905
0.21684282	0.03022909	0.00675750	-0.00666824	0.00109468	0.01504911
0.28071639	0.03022909	0.01078185	-0.01072006	0.00115265	0.01500068
0.35028759	0.03022909	0.01513566	-0.01509945	0.00104631	0.01520308
0.42403662	0.03022909	0.01891936	-0.01890622	0.00070509	0.01572137
0.50000000	0.03022909	0.02080809	-0.02080791	0.00008753	0.01651866
0.57596344	0.03022909	0.01958582	-0.01957361	-0.00069138	0.01737075
0.64971244	0.03022909	0.01517350	-0.01511508	-0.00133026	0.01791903
0.71928364	0.03022909	0.00912698	-0.00899864	-0.00152520	0.01790656
0.78315717	0.03022909	0.00371044	-0.00350505	-0.00121736	0.01738101
0.84035569	0.03022909	0.00062401	-0.00009530	-0.00061669	0.01663506
0.89044422	0.03022909	0.00113612	0.00113599	-0.00001721	0.01597732
0.93345505	0.03022909	0.00102392	0.00096321	0.00034735	0.01557509
0.96977091	0.03022909	0.00049047	0.00034678	0.00034686	0.01543903
1.00000000	0.03022909	0.00000000	0.00000000	0.00000000	0.01543044
0.00000000	0.00000000	0.00000000	0.00000000	0.00000000	0.01593999
0.03022909	0.00000000	0.00000000	0.00000000	0.00000000	0.01589073
0.06654494	0.00000000	0.00000000	0.00000000	0.00000000	0.01571896
0.10955581	0.00000000	0.00000000	0.00000000	0.00000000	0.01543225
0.15964432	0.00000000	0.00000000	0.00000000	0.00000000	0.01511658
0.21684282	0.00000000	0.00000000	0.00000000	0.00000000	0.01488019
0.28071639	0.00000000	0.00000000	0.00000000	0.00000000	0.01482577
0.35028759	0.00000000	0.00000000	0.00000000	0.00000000	0.01504995
0.42403662	0.00000000	0.00000000	0.00000000	0.00000000	0.01562484
0.50000000	0.00000000	0.00000000	0.00000000	0.00000000	0.01651312
0.57596344	0.00000000	0.00000000	0.00000000	0.00000000	0.01747130
0.64971244	0.00000000	0.00000000	0.00000000	0.00000000	0.01810338
0.71928364	0.00000000	0.00000000	0.00000000	0.00000000	0.01811933
0.78315717	0.00000000	0.00000000	0.00000000	0.00000000	0.01756320
0.84035569	0.00000000	0.00000000	0.00000000	0.00000000	0.01675378
0.89044422	0.00000000	0.00000000	0.00000000	0.00000000	0.01603445
0.93345505	0.00000000	0.00000000	0.00000000	0.00000000	0.01559608
0.96977091	0.00000000	0.00000000	0.00000000	0.00000000	0.01544955
1.00000000	0.00000000	0.00000000	0.00000000	0.00000000	0.01544041
